# vtk DataFile Version 5.1
vtk output
ASCII
DATASET POLYDATA
POINTS 21260 float
0.0402158 0.0781982 0.0100592 0.0402286 0.0782147 0.010069 0.0402572 0.0782124 0.0100719 
0.0402555 0.0781643 0.0100484 0.0402161 0.0781631 0.0100423 0.0400653 0.078237 0.0100569 
0.040078 0.0782535 0.0100667 0.0401067 0.0782515 0.0100697 0.0401053 0.0782031 0.0100461 
0.0400657 0.0782019 0.01004 0.0402163 0.0782386 0.0100788 0.040178 0.0781978 0.0100538 
0.0401784 0.0782458 0.010077 0.0401068 0.0781757 0.0100331 0.0400787 0.0781777 0.0100302 
0.0401783 0.0781702 0.0100405 0.0402285 0.0781391 0.0100324 0.0402569 0.0781373 0.0100356 
0.0402922 0.0782091 0.0100752 0.0402917 0.0781614 0.0100521 0.0402921 0.0781339 0.0100389 
0.0401423 0.0782487 0.0100734 0.0401051 0.0782796 0.0100831 0.0401417 0.0782769 0.0100869 
0.040142 0.0782005 0.01005 0.0401781 0.0782735 0.0100904 0.0398779 0.0782486 0.0100362 
0.039914 0.0782457 0.0100399 0.0399136 0.0781977 0.0100167 0.0398775 0.0782003 0.0100129 
0.0399139 0.07817 0.0100033 0.0398779 0.0781728 0.00999966 0.0400653 0.0781614 0.0100204 
0.0400273 0.0781612 0.010015 0.0400277 0.0782094 0.0100383 0.0399515 0.078198 0.0100221 
0.0399517 0.078163 0.0100052 0.0402183 0.078092 0.0100083 0.04022 0.0780639 0.00999492 
0.0401913 0.0780659 0.0099919 0.0401789 0.0780898 0.0100017 0.0402556 0.0780611 0.0099986 
0.040255 0.0780893 0.0100121 0.040342 0.0781026 0.0100307 0.0403706 0.0781003 0.0100336 
0.0403689 0.0780521 0.0100101 0.0403295 0.078051 0.0100041 0.0403293 0.0780861 0.010021 
0.0399519 0.0782385 0.0100417 0.0399643 0.0782149 0.0100321 0.0399906 0.0780892 0.00997503 
0.0399539 0.0780919 0.0099712 0.0399515 0.0781228 0.00998579 0.039964 0.0781391 0.00999543 
0.0399926 0.0781368 0.00999832 0.0399135 0.0781215 0.00997986 0.0399145 0.0780896 0.00996455 
0.0400654 0.0781263 0.0100035 0.0400277 0.0781337 0.0100017 0.0399911 0.0781641 0.0100113 
0.0399929 0.0782121 0.0100347 0.0401779 0.0781217 0.010017 0.0402159 0.078123 0.0100229 
0.040105 0.0781274 0.0100095 0.0400776 0.0781024 0.00999361 0.0401062 0.0781001 0.0099965 
0.0402913 0.078086 0.0100156 0.0402916 0.0780582 0.0100022 0.0403694 0.0781276 0.0100467 
0.0403298 0.0781265 0.0100406 0.0403295 0.0781616 0.0100575 0.0403423 0.0781782 0.0100673 
0.040371 0.0781761 0.0100703 0.0403299 0.0782021 0.0100771 0.0401423 0.078173 0.0100368 
0.0401419 0.0781243 0.0100132 0.0399644 0.07829 0.0100684 0.0399516 0.0782735 0.0100586 
0.0399137 0.0782734 0.0100532 0.0399144 0.0783213 0.0100765 0.0399521 0.0783139 0.0100782 
0.0400672 0.0779043 0.00989642 0.0400648 0.0779352 0.00991102 0.0400773 0.0779515 0.00992065 
0.0401059 0.0779492 0.00992354 0.0401038 0.0779015 0.00990023 0.0399174 0.0776125 0.00973445 
0.0399523 0.0776091 0.00973772 0.0399518 0.0775614 0.00971458 0.0399156 0.0775643 0.00971093 
0.0401801 0.0774613 0.00969823 0.0401795 0.0774895 0.00971175 0.0402158 0.0774861 0.00971522 
0.0402162 0.0774584 0.00970188 0.0402541 0.0774512 0.00970369 0.0402539 0.0774863 0.00972063 
0.0401817 0.0776126 0.00977154 0.0402167 0.0776093 0.00977483 0.0402162 0.0775616 0.00975173 
0.04018 0.0775645 0.00974806 0.0398759 0.0778977 0.00986647 0.0399137 0.0778981 0.00987193 
0.0399139 0.077863 0.00985503 0.0398762 0.0778701 0.00985317 0.0399265 0.0779144 0.00988159 
0.0399549 0.0779126 0.00988472 0.0399534 0.0778642 0.00986112 0.0400661 0.0776016 0.00975004 
0.0400682 0.0776493 0.00977336 0.0401032 0.0776461 0.00977675 0.0401024 0.0775983 0.00975351 
0.0402172 0.0777894 0.00986194 0.0402178 0.0777612 0.00984841 0.0401822 0.077764 0.00984474 
0.0401806 0.0777921 0.00985813 0.0402539 0.0777583 0.00985206 0.0402536 0.077786 0.0098654 
0.0403704 0.0780248 0.00999713 0.0403418 0.0780271 0.00999423 0.0401409 0.0779461 0.00992694 
0.0401044 0.0779765 0.00993653 0.0401405 0.0779736 0.00994019 0.0401402 0.0778982 0.0099037 
0.0403417 0.0779517 0.00995777 0.0403292 0.0779354 0.00994814 0.0402912 0.0779341 0.00994221 
0.0402916 0.0779826 0.0099657 0.0403294 0.0779755 0.00996757 0.0401445 0.0773882 0.00965792 
0.040143 0.0774157 0.00967097 0.0401797 0.0774131 0.00967488 0.04018 0.0773859 0.00966177 
0.0402158 0.0774105 0.00967865 0.0402161 0.0773829 0.00966536 0.0401445 0.077464 0.00969455 
0.0401029 0.077374 0.00964525 0.040065 0.0773738 0.00963981 0.0400656 0.0774217 0.00966305 
0.0401033 0.0774145 0.00966483 0.0401157 0.0773909 0.00965518 0.0402185 0.0780155 0.00997136 
0.0401788 0.0780143 0.00996521 0.0401785 0.0780493 0.00998212 0.04022 0.0779882 0.00995838 
0.0401912 0.0779907 0.00995556 0.0401406 0.0780491 0.00997666 0.040141 0.0780215 0.00996343 
0.0401784 0.0779739 0.00994563 0.0401786 0.0779387 0.00992868 0.0401909 0.0779148 0.00991884 
0.0401781 0.0778983 0.00990908 0.0402183 0.0779398 0.00993477 0.040106 0.0780246 0.00996 
0.0399517 0.0773826 0.0096282 0.0399514 0.0774103 0.00964152 0.0399894 0.0774105 0.00964697 
0.0399895 0.0773755 0.00963007 0.0399157 0.077461 0.00966103 0.0399516 0.0774585 0.00966487 
0.0399153 0.0774129 0.00963773 0.0399157 0.0773854 0.00962451 0.0399898 0.077451 0.00966659 
0.0400028 0.0774269 0.00965674 0.0399899 0.0775265 0.00970308 0.0400021 0.0775026 0.00969325 
0.0399894 0.0774861 0.0096835 0.0399514 0.077486 0.00967811 0.0399522 0.0775339 0.00970135 
0.0399151 0.0774893 0.00967464 0.0399172 0.077537 0.00969795 0.0400652 0.0774492 0.00967629 
0.0400291 0.0774522 0.00967265 0.0400307 0.0775003 0.00969613 0.0400657 0.077497 0.00969942 
0.0400295 0.0775276 0.00970916 0.0400664 0.0775245 0.00971284 0.040295 0.077425 0.00969676 
0.0402933 0.0773768 0.00967327 0.0402539 0.0773757 0.0096672 0.0402536 0.0774108 0.0096841 
0.0402664 0.0774273 0.00969387 0.0402938 0.0774523 0.0097098 0.0401025 0.0775219 0.0097166 
0.0400667 0.0775734 0.0097365 0.0401028 0.0775705 0.00974014 0.0401158 0.0774661 0.00969153 
0.0401034 0.0774899 0.00970131 0.0401428 0.0774922 0.00970793 0.0401031 0.0774495 0.00968174 
0.0402666 0.0775028 0.0097304 0.0402954 0.0775006 0.00973337 0.0402166 0.0775341 0.0097385 
0.0402543 0.0775267 0.00974022 0.0399891 0.0777102 0.0097917 0.040027 0.0777105 0.00979715 
0.0400272 0.0776754 0.00978026 0.0399894 0.0776825 0.00977839 0.0399895 0.0777581 0.00981493 
0.0400274 0.0777509 0.00981674 0.0400397 0.077727 0.00980691 0.0399263 0.0778392 0.00984524 
0.0399138 0.0778229 0.00983561 0.0398758 0.0778216 0.00982968 0.0400685 0.0778002 0.00984631 
0.0400399 0.0778025 0.00984343 0.0400276 0.0778264 0.00985327 0.0400673 0.0778275 0.00985935 
0.0400668 0.077752 0.00982281 0.0400271 0.077786 0.00983366 0.0399892 0.0777858 0.00982828 
0.0399895 0.0778613 0.00986478 0.0399901 0.077909 0.00988792 0.0399549 0.0778369 0.00984814 
0.0401409 0.0776388 0.00977848 0.0401028 0.0776737 0.00978999 0.0401407 0.0776739 0.0097954 
0.0401404 0.0775984 0.00975889 0.0401531 0.0776149 0.00976865 0.0402175 0.077713 0.00982505 
0.0401807 0.0777155 0.00982112 0.0401408 0.0777494 0.00983192 0.0401535 0.077766 0.00984171 
0.040141 0.0777143 0.00981497 0.0401412 0.0777899 0.0098515 0.0401782 0.0778231 0.00987277 
0.0401908 0.0778398 0.00988258 0.0402194 0.0778371 0.00988531 0.0399555 0.077988 0.00992121 
0.039954 0.0780153 0.0099342 0.0399908 0.0780127 0.00993811 0.0399911 0.0779852 0.00992488 
0.0399269 0.0780655 0.00995466 0.0399554 0.078064 0.00995792 0.0399912 0.078061 0.0099615 
0.0401412 0.0780968 0.00999979 0.0399139 0.0779736 0.00990846 0.0399141 0.0779385 0.00989152 
0.0398762 0.0779457 0.00988971 0.0398759 0.0779734 0.00990305 0.0400307 0.0774248 0.00965964 
0.0400289 0.0773767 0.00963615 0.0399897 0.0775616 0.00972002 0.03999 0.0776021 0.0097396 
0.0400024 0.0775782 0.00972981 0.0401814 0.0775375 0.0097352 0.0399534 0.0776853 0.0097747 
0.0399531 0.0777128 0.00978792 0.0399179 0.0777638 0.00980765 0.0399534 0.0777611 0.00981129 
0.0399163 0.0777154 0.00978401 0.0401029 0.0777491 0.00982647 0.0401033 0.0777216 0.00981323 
0.0400683 0.0777247 0.00980981 0.0401042 0.0778244 0.00986303 0.0401035 0.0777969 0.00984961 
0.0402916 0.0777862 0.00987081 0.0402918 0.0777511 0.00985388 0.0402544 0.077834 0.00988867 
0.0400269 0.0780101 0.00994189 0.0400272 0.0779824 0.00992858 0.0398768 0.0780966 0.00996266 
0.0398775 0.0781242 0.00997609 0.0399141 0.0780492 0.00994498 0.0398762 0.0780489 0.00993954 
0.0402556 0.0779854 0.00996202 0.0402552 0.0780129 0.00997523 0.0402913 0.0780102 0.00997901 
0.0402552 0.0779367 0.00993844 0.0400273 0.0766987 0.00930836 0.04004 0.0767152 0.00931813 
0.0400688 0.076713 0.0093211 0.0400672 0.0766648 0.00929757 0.0400275 0.0766636 0.00929146 
0.0399162 0.0767046 0.00929566 0.0398768 0.0767023 0.00928904 0.0398758 0.0767343 0.00930434 
0.0399138 0.0767355 0.00931027 0.0400667 0.0765892 0.009261 0.0400682 0.076562 0.00924803 
0.0400396 0.0765643 0.00924513 0.0400273 0.0765881 0.00925493 0.0402168 0.0765219 0.00924949 
0.0401818 0.0765252 0.0092462 0.0401806 0.0765526 0.00925923 0.0402175 0.0765495 0.00926291 
0.0402535 0.0765468 0.00926667 0.0402545 0.0765149 0.00925138 0.0401033 0.0765588 0.00925142 
0.0401029 0.0765864 0.00926466 0.0401823 0.0766011 0.00928291 0.0402178 0.0765984 0.00928657 
0.0402538 0.0765955 0.00929021 0.0399263 0.0767519 0.00931991 0.039955 0.0767495 0.0093228 
0.0399529 0.0767019 0.00929947 0.0399524 0.0765217 0.00921236 0.03999 0.0765147 0.00921425 
0.0400025 0.0764906 0.00920436 0.0399897 0.0764743 0.00919468 0.0399518 0.076474 0.00918924 
0.0400661 0.0765143 0.00922472 0.0400295 0.0765171 0.0092209 0.0400271 0.0765479 0.00923549 
0.0399891 0.0765467 0.00922956 0.0399178 0.0766007 0.00924569 0.0399534 0.076598 0.00924936 
0.0399531 0.0765493 0.00922579 0.0399162 0.0765524 0.00922212 0.0399531 0.0766254 0.00926257 
0.0399163 0.076628 0.00925866 0.0401407 0.076476 0.00921663 0.0401028 0.0764832 0.00921482 
0.0401025 0.0765109 0.00922817 0.0401404 0.0765111 0.00923355 0.0400667 0.0764861 0.0092112 
0.040141 0.0765515 0.00925315 0.0401532 0.0765276 0.00924332 0.0402915 0.0765481 0.00927261 
[...]
POINT_DATA 21260
SCALARS flow double 3
LOOKUP_TABLE default
-0.063589329833 -0.063684955042 0.24048664817 -0.063602901669 -0.063475505101 0.24105499845 -0.063281809114 -0.063207690893 0.24145679303 
-0.062650313039 -0.063463772713 0.24061584843 -0.063178173452 -0.063849858073 0.23979763155 -0.065113874793 -0.06456564139 0.24021898887 
-0.064950314774 -0.064386813744 0.24098487495 -0.064758637898 -0.064219595554 0.24101493929 -0.064796906207 -0.064512256288 0.23920474407 
-0.065183108203 -0.064750887291 0.23883225467 -0.063885079156 -0.063445011808 0.24150436037 -0.064009074816 -0.06401413341 0.23990877159 
-0.064223188448 -0.063727006993 0.24132396693 -0.064682111672 -0.064628037666 0.23836089854 -0.065010474396 -0.064784316268 0.23810857812 
-0.063764648321 -0.06414363388 0.23925361401 -0.062628285383 -0.063828634157 0.23966935588 -0.062150467931 -0.063555128984 0.24030052477 
-0.062862066997 -0.062855636758 0.24200600158 -0.062083574508 -0.063090071048 0.24137818488 -0.061513167912 -0.06318907917 0.24113375987 
-0.064502395503 -0.063988909874 0.24112671248 -0.064640964227 -0.064025961939 0.24226935471 -0.064447120733 -0.063789933388 0.24226986589 
-0.064412107096 -0.064277079841 0.23951434779 -0.064237698685 -0.063532317468 0.24233119631 -0.066187081025 -0.065314536545 0.24116642974 
-0.066037193402 -0.065203167376 0.24077420846 -0.066498424701 -0.065390987976 0.23823638882 -0.066730482875 -0.065487869733 0.23846229669 
-0.066654722358 -0.065456826134 0.23690857193 -0.066933356824 -0.065543702174 0.23705288171 -0.065103559154 -0.064915717135 0.23743956661 
-0.065541705009 -0.065093577873 0.23706428603 -0.065516453284 -0.064908813199 0.23891272645 -0.066204305139 -0.065266714847 0.23823628902 
-0.066331412767 -0.06536276772 0.23667505104 -0.061901431741 -0.064053035387 0.23880702834 -0.061238855562 -0.064079277626 0.23853402982 
-0.061854816891 -0.064321004142 0.23776777307 -0.062573344328 -0.064387434302 0.23778300793 -0.060446870796 -0.063742508474 0.23954533638 
-0.061156458744 -0.063707344871 0.23976346191 -0.059840131154 -0.062679940287 0.24235387946 -0.059219411383 -0.062309803982 0.24321616857 
-0.057745021522 -0.062397342736 0.24313813974 -0.058584184936 -0.062914180848 0.24182145927 -0.059624365344 -0.062874364677 0.24191847589 
-0.065893437726 -0.065095755011 0.24022888157 -0.066001253084 -0.065155831395 0.23903057132 -0.065640931751 -0.0653319199 0.23424278524 
-0.066163844155 -0.065422215543 0.23391405711 -0.066322533253 -0.06542145378 0.23504368853 -0.066211014247 -0.065369165159 0.23576479416 
-0.065877659929 -0.065282960196 0.23589345828 -0.066744482642 -0.065509560137 0.23475809394 -0.066652078634 -0.065496345909 0.23346559008 
-0.064882899973 -0.065012194455 0.23638091385 -0.065434859254 -0.065160917212 0.23612885808 -0.065935500928 -0.06522815724 0.23691246192 
-0.065795732294 -0.06505264882 0.23892618169 -0.063141600434 -0.064321902013 0.23828679753 -0.062547634622 -0.06399760394 0.23915280403 
-0.064329968089 -0.064801521423 0.23702164193 -0.064467897081 -0.064996914815 0.23593039943 -0.063985424159 -0.064851815698 0.23639554072 
-0.060372435491 -0.063324566808 0.24077855959 -0.059614926179 -0.063359686556 0.24063178576 -0.060034299966 -0.06225876491 0.24320553063 
-0.060699949607 -0.062769055301 0.24208724991 -0.061530589422 -0.062647603278 0.2422792195 -0.061703858101 -0.062423480797 0.24270030699 
-0.061255880533 -0.062070104849 0.2433756023 -0.062320525533 -0.062461666846 0.24264464084 -0.064240698494 -0.064404005807 0.2387577223 
-0.0637432278 -0.064578243987 0.23760797435 -0.065215441745 -0.064718124158 0.2431240956 -0.065496257579 -0.064892694924 0.24218937077 
-0.065671177181 -0.065049314729 0.24242509119 -0.064858123591 -0.064677616147 0.24571084531 -0.064888184941 -0.064576333893 0.24480780212 
-0.060765799981 -0.064538852549 0.23204484896 -0.061600069025 -0.064727216784 0.23239863603 -0.061697040767 -0.064767056018 0.23299566143 
-0.060959448505 -0.064644518312 0.23381355995 -0.059756838936 -0.064395550974 0.23317101656 -0.053698896581 -0.062025297477 0.22030272888 
-0.052634226783 -0.061822301748 0.22118613612 -0.049852456823 -0.061280603973 0.21875772167 -0.050883769568 -0.061550785373 0.2178915087 
-0.03952645053 -0.057628147592 0.21881623086 -0.040635410837 -0.058175711162 0.22074819664 -0.039721097959 -0.057706540336 0.2215034057 
-0.038708427435 -0.057146902043 0.21955385723 -0.037760110171 -0.056537292442 0.22001927306 -0.038942850697 -0.05727081531 0.22254867062 
-0.046504270585 -0.060503152952 0.22854941277 -0.045380164361 -0.060145697725 0.2294787129 -0.043062975119 -0.059223609392 0.22663090578 
-0.044124853203 -0.059620374544 0.22573024491 -0.06491125523 -0.06468350194 0.22689620846 -0.064162501496 -0.064684494341 0.22776342859 
-0.063398814104 -0.064418132716 0.2270701375 -0.064350667012 -0.064475790115 0.22628215659 -0.064228201077 -0.064795806527 0.22840600316 
-0.063593384215 -0.064771501313 0.22905366525 -0.062537444721 -0.064416429049 0.22813089101 -0.049165014131 -0.061115621657 0.22431737933 
-0.051611732649 -0.06182144708 0.22659474108 -0.050435785433 -0.06159528954 0.22760883394 -0.047971429178 -0.060830566232 0.22528133346 
-0.053050133353 -0.062817255152 0.23569504338 -0.05200390257 -0.062497488576 0.23516885694 -0.05315466892 -0.062779259638 0.23396645381 
-0.054215603306 -0.063100779653 0.23443039652 -0.050840035338 -0.062162202635 0.23638013312 -0.051872916751 -0.062479620246 0.23693420103 
-0.056808731215 -0.062379507243 0.24316312995 -0.05755556043 -0.062762273289 0.24217310763 -0.060021836573 -0.064458949946 0.23486919397 
-0.061664797906 -0.064758621304 0.23413137154 -0.060753966228 -0.064565577617 0.23516655681 -0.0587092486 -0.064208772359 0.23433334383 
-0.055070562673 -0.06263952784 0.24189984452 -0.054853015825 -0.062741048307 0.24135179003 -0.055812122212 -0.063178266039 0.23995152732 
-0.057352535483 -0.063319556736 0.24024484332 -0.05618012778 -0.062858490402 0.24155821174 -0.038069856912 -0.056710302459 0.2130006414 
-0.038778923991 -0.057230854361 0.21478619225 -0.038043425646 -0.056710700825 0.21548055428 -0.037427825085 -0.056183122443 0.21363138519 
-0.037352520088 -0.056191983828 0.21615680028 -0.036793649093 -0.055629864152 0.21423057995 -0.040363537887 -0.058086641153 0.21807463375 
-0.038479622917 -0.05703539976 0.21119231322 -0.039120202439 -0.057571115706 0.21039871439 -0.040439351564 -0.058315724145 0.21336690246 
-0.039485136567 -0.05771751091 0.21377831571 -0.038629768684 -0.057150102544 0.21254039067 -0.060046203166 -0.064091604931 0.23802633875 
-0.060903967997 -0.064407544729 0.2367951366 -0.061743461712 -0.064428904023 0.23721039837 -0.059258646031 -0.064037196947 0.23784162082 
-0.060010101172 -0.064275673142 0.23693122879 -0.06249819028 -0.064688940575 0.23619919287 -0.061898093294 -0.064668734206 0.23580031427 
-0.059857887402 -0.064325891985 0.236358629 -0.058871215193 -0.064195172828 0.23603067765 -0.057853749814 -0.063993762958 0.23623074327 
-0.057700765221 -0.063987482301 0.23563646177 -0.057887941737 -0.063901073757 0.23739607421 -0.062696472156 -0.064864752069 0.23491505566 
-0.041302965919 -0.059296305192 0.20867781173 -0.042211212919 -0.059618689973 0.21018118269 -0.041520374873 -0.059132753228 0.21099298919 
-0.04045963815 -0.058677025748 0.20900798269 -0.04504311598 -0.060563357905 0.21220722538 -0.044206677266 -0.060146944674 0.21290301845 
-0.042958820031 -0.06010582505 0.20958693417 -0.041999445017 -0.059821073493 0.20815156759 -0.043091328418 -0.059634357464 0.2133686595 
-0.041850738214 -0.059172756676 0.2122394804 -0.046911981119 -0.060576381803 0.21786349389 -0.045321315287 -0.060160955418 0.2167751009 
-0.044755037485 -0.060072513575 0.21544988529 -0.045572941234 -0.060446593124 0.2144793621 -0.048219324197 -0.060967390878 0.21724908809 
-0.046517336949 -0.060835520753 0.21376871768 -0.04920465724 -0.061272001442 0.21647162756 -0.041450641137 -0.058743694551 0.215088434 
-0.042323335955 -0.059200383395 0.21438425003 -0.044540368109 -0.059861477482 0.21740009022 -0.043559614694 -0.059475147646 0.21813999235 
-0.046017863563 -0.060263147217 0.21903604738 -0.044943864981 -0.059900652977 0.2198916369 -0.036368631193 -0.055463130952 0.2191426419 
-0.035565898159 -0.054446527232 0.21555487137 -0.036112782372 -0.054962574456 0.21457709552 -0.036730042072 -0.055703529894 0.21708761644 
-0.036895503787 -0.055883263691 0.21859720346 -0.037078700573 -0.056062811652 0.22113121763 -0.043921792387 -0.059536129755 0.22075126882 
-0.047596224917 -0.060671433955 0.22281424108 -0.046471655633 -0.060362991094 0.22374425311 -0.041053797438 -0.058444235413 0.21746717626 
-0.042356721884 -0.058984251822 0.21871057604 -0.041564714223 -0.058616404787 0.21993106483 -0.040673745732 -0.058307773643 0.2160516069 
-0.039307752314 -0.057468140875 0.22408323857 -0.038631010346 -0.057077601354 0.22471861359 -0.041754768456 -0.05866773746 0.22484310388 
-0.040556979431 -0.058111625296 0.22542230858 -0.056690025113 -0.062879454399 0.22611979077 -0.05563922539 -0.062789725023 0.22735363502 
-0.054068517707 -0.062348767015 0.22625684538 -0.055461235848 -0.062554556886 0.22528271673 -0.058525983711 -0.063405733367 0.22730482092 
-0.057215506204 -0.063258713525 0.22837213138 -0.055950057127 -0.062953984367 0.22821561685 -0.062547894771 -0.064219317955 0.22694825496 
-0.062415373472 -0.064082481917 0.22630433867 -0.063232070719 -0.064080487247 0.22525994838 -0.057737492516 -0.063680185898 0.23066114616 
-0.05861131952 -0.06377114016 0.2297531417 -0.059669218851 -0.064019636912 0.22973358227 -0.05862375496 -0.063943258336 0.23103392741 
-0.056124743072 -0.063170163835 0.22970954762 -0.058436097716 -0.063631866139 0.2290567329 -0.059462100647 -0.063688392963 0.22784461385 
-0.061601927622 -0.064367778424 0.22910113962 -0.062736554608 -0.064718782817 0.22989475796 -0.061813004161 -0.064188543898 0.22770616544 
-0.048974791349 -0.061252320039 0.22851933549 -0.051779418702 -0.062011557679 0.22868902392 -0.050666723668 -0.061810288066 0.22996715473 
-0.046925792266 -0.060566600751 0.22648174689 -0.047420954811 -0.060762548069 0.22775856887 -0.050108704927 -0.061869772552 0.23390903548 
-0.051302294924 -0.062170714769 0.2327151728 -0.053838505342 -0.062842845284 0.23219964637 -0.054078731619 -0.062972325854 0.23299676385 
-0.052431023071 -0.062389777239 0.23131292896 -0.055290979545 -0.06329804199 0.2329972734 -0.055338087427 -0.063418388396 0.23480759341 
-0.055525079028 -0.063482120983 0.23546845458 -0.054624827186 -0.063251980738 0.23646581622 -0.064980743097 -0.065184528325 0.23074161637 
-0.065408746806 -0.06528758418 0.23145256063 -0.064723942403 -0.065220674575 0.23205841762 -0.064259379004 -0.06512506406 0.23141204219 
-0.06635204081 -0.065446498497 0.23268189536 -0.065934548639 -0.065395586938 0.23297056913 -0.065362225402 -0.06531584269 0.23338187685 
-0.063355188218 -0.064644645856 0.23703994767 -0.065504679538 -0.065150576368 0.22958031501 -0.064923879198 -0.064954078868 0.22868133748 
-0.065736935648 -0.065005292306 0.22812260132 -0.066144663871 -0.065162919033 0.22892482438 -0.041227081271 -0.05879765563 0.21275008712 
-0.039810876438 -0.058132102282 0.20984639529 -0.048934317017 -0.061028485582 0.21986378915 -0.05125815072 -0.061547590666 0.22198802324 
-0.04956875641 -0.061163611605 0.22113811706 -0.042757840954 -0.059085049406 0.22404394786 -0.05656425589 -0.0626825546 0.22424166722 
-0.057770666445 -0.062981495877 0.22505697235 -0.060569146166 -0.063541946021 0.22523847999 -0.059581074774 -0.063480749156 0.22624512702 
-0.058821554228 -0.063072280342 0.22400231128 -0.054955149477 -0.063011245036 0.23087863337 -0.053860948653 -0.0626680639 0.23022089085 
-0.055025111695 -0.062839511525 0.22911174322 -0.057496250779 -0.063797427912 0.23223274153 -0.056627198832 -0.063533934141 0.23179883308 
-0.050782724282 -0.062113817918 0.23829492643 -0.049465471581 -0.06170653123 0.2375383502 -0.053524378674 -0.062929831899 0.23769419801 
-0.06400215682 -0.065131560053 0.23274675128 -0.0634815401 -0.065041942741 0.23218084116 -0.067108586085 -0.065561523507 0.23350850519 
-0.067111894198 -0.065577841748 0.23473552303 -0.066400489437 -0.065431121868 0.23195761078 -0.066909928797 -0.065469261321 0.2315469783 
-0.058319649088 -0.063702676675 0.23901537526 -0.059133162399 -0.063747073943 0.2391882485 -0.05821453108 -0.063363356479 0.24037739827 
-0.05683853041 -0.063559043203 0.23867130171 -0.047071123779 -0.043253716504 0.16603413432 -0.046806550083 -0.043192594971 0.16708089509 
-0.047174995603 -0.042602841548 0.16770962005 -0.048381252102 -0.042132549428 0.16577922448 -0.047940554916 -0.042884695637 0.16460202659 
-0.045284509849 -0.045500271777 0.16322397126 -0.044645976552 -0.046190736336 0.16199114812 -0.043910280838 -0.04664342951 0.1637340119 
-0.044525752121 -0.045959292412 0.16479560008 -0.050119343643 -0.041566440034 0.16324659293 -0.050688959093 -0.041389823057 0.16252061008 
-0.050296908843 -0.041924139417 0.16159803891 -0.049655336156 -0.042290529381 0.16189842958 -0.052538225534 -0.038791541963 0.16626956736 
-0.052315136277 -0.039325002952 0.16531838065 -0.051818086791 -0.039435256804 0.16582657503 -0.052053086097 -0.038865265836 0.16679274238 
-0.052219928336 -0.038356334781 0.16767806187 -0.052773862346 -0.038258557323 0.16716904765 -0.051115830537 -0.040749434877 0.16360039197 
-0.050556614718 -0.04089707895 0.16430998744 -0.050826475723 -0.039637746582 0.16698455332 -0.051053285187 -0.039077388889 0.16783615931 
-0.05123490634 -0.038551448898 0.16864117821 -0.044351281722 -0.045953951269 0.16600899519 -0.044839263267 -0.045353139491 0.16659267176 
-0.045946377723 -0.044762456305 0.16412328872 -0.049726427531 -0.043314319297 0.15707792215 -0.050462374517 -0.042608388863 0.15837233004 
-0.05101807707 -0.042302828612 0.15825267653 -0.051048045636 -0.042485918719 0.15734644144 -0.050420780394 -0.043151610695 0.15575266482 
-0.051510927786 -0.041233053966 0.16125097507 -0.051002424955 -0.041901148831 0.15995379105 -0.050437687606 -0.042073388067 0.16068686679 
-0.049904419123 -0.042766311044 0.1592451976 -0.047643072466 -0.044413356449 0.15852057327 -0.048324887078 -0.043742639019 0.15967354696 
-0.049266035297 -0.04343717118 0.15795960045 -0.048550372503 -0.044109659858 0.1566510586 -0.047729758498 -0.043968048424 0.16073364301 
-0.047036734773 -0.044670402647 0.1596060896 -0.052795627675 -0.039869756531 0.16312493869 -0.0523687927 -0.040514369975 0.1619286845 
-0.051951329173 -0.040587021671 0.1624712226 -0.052276490136 -0.039947571454 0.16375382664 -0.051943741958 -0.04114572488 0.16065845358 
-0.051577700905 -0.04007317161 0.16461972914 -0.052096076884 -0.039786893046 0.16449018147 -0.052266082381 -0.037893538346 0.16860043618 
-0.052802496069 -0.037790889337 0.16816913794 -0.053250973642 -0.038711057449 0.16550391384 -0.053162294146 -0.038061557161 0.16713891484 
-0.053364622956 -0.038199424718 0.16657937573 -0.05087362492 -0.040239242293 0.16546094898 -0.051463974548 -0.038040861123 0.16933802189 
-0.051970753231 -0.037806632593 0.16915237471 -0.045404602894 -0.044600454803 0.16729422545 -0.044182341669 -0.045797856411 0.16804473752 
-0.044734995621 -0.045013100797 0.16870420719 -0.046570520676 -0.044005537371 0.16498417765 -0.047062097201 -0.044934081574 0.15759946319 
-0.046326314217 -0.045353337343 0.15822829079 -0.053040653511 -0.039248327933 0.16443832913 -0.050612161722 -0.040106562422 0.16626909896 
-0.043146563278 -0.046591206202 0.1708983696 -0.043639891593 -0.045800386863 0.17136907233 -0.0385824985 -0.057111842328 0.20873754189 
-0.037888753704 -0.056405642425 0.20898260396 -0.03746060329 -0.055758332218 0.2076833078 -0.037524448293 -0.055637369241 0.2064137412 
-0.038033263058 -0.056268818236 0.20580731553 -0.038558414882 -0.05694146606 0.20545281852 -0.03919636051 -0.05769742852 0.20827963531 
-0.04430357477 -0.04256378256 0.17607621734 -0.044380858047 -0.041894525504 0.17669481799 -0.045105944363 -0.041411977206 0.17543431792 
-0.044964230439 -0.041934017729 0.17510245124 -0.044521662845 -0.041242492625 0.17705604769 -0.04526170628 -0.040802489642 0.17580897157 
-0.043419751122 -0.043243349458 0.17792266788 -0.043042452732 -0.043356157637 0.17900475403 -0.043145569384 -0.042799874724 0.17922349152 
-0.043714803494 -0.04414553864 0.17557725766 -0.043479567305 -0.044774604448 0.17528854731 -0.042859747214 -0.045529635433 0.17653587978 
-0.043066426734 -0.044734687185 0.17712552659 -0.043249511241 -0.042147961911 0.17949696382 -0.0406497107 -0.048328364602 0.18413484138 
-0.040374839535 -0.0485229728 0.18547711356 -0.040450703471 -0.047837609814 0.1855106726 -0.041416227442 -0.046540213902 0.18200617 
-0.041306933971 -0.047355095942 0.18156312634 -0.03994864421 -0.049495610329 0.18723033923 -0.040542711061 -0.049167659372 0.18383074014 
-0.039813417073 -0.05055138596 0.18755948408 -0.040004627271 -0.051746970567 0.18320838993 -0.039724752411 -0.052692598693 0.18579760449 
-0.039822321443 -0.051918882008 0.18618523022 -0.040171680999 -0.050966748352 0.18373085329 -0.039608767929 -0.058207997917 0.20165887148 
-0.040212561398 -0.058924380141 0.20421474964 -0.03959924058 -0.058214764497 0.20436980719 -0.039170001587 -0.057622338132 0.2032147057 
-0.03918318061 -0.057555709568 0.20211585571 -0.037904319912 -0.048873379324 0.19537710006 -0.037522965902 -0.049829109098 0.19718245462 
-0.037281426229 -0.04915571688 0.19766436979 -0.037819777042 -0.048289916981 0.19545179415 -0.036958992579 -0.050872912584 0.19995628191 
-0.037624908503 -0.050751363712 0.19740612517 -0.037237072003 -0.051558120318 0.1995326298 -0.036631013259 -0.05110839804 0.20139052343 
-0.036449036034 -0.050570992401 0.20158056242 -0.047184512215 -0.04152440596 0.17023874684 -0.046853101602 -0.042221184856 0.16956149186 
-0.04558559515 -0.04288009939 0.17170483037 -0.045906089067 -0.042150862159 0.17224348739 -0.045239713036 -0.043612329162 0.17112586355 
-0.046456555172 -0.042963236057 0.16884145857 -0.037305684834 -0.055823727576 0.20980223166 -0.045180190155 -0.044237833115 0.16955441621 
-0.046059286713 -0.043737263645 0.16785338104 -0.04490153575 -0.044235791728 0.17068145638 -0.045179313 -0.042578266643 0.17350385508 
-0.045353364459 -0.04189201027 0.17414342404 -0.046293326113 -0.041372327928 0.17262989434 -0.046406616729 -0.040729556317 0.17337472216 
-0.043971394426 -0.043398801939 0.17591366631 -0.047389503182 -0.040865699951 0.17103617841 -0.046996313993 -0.040850501888 0.17190901794 
-0.043766048448 -0.044715888186 0.17416893608 -0.044869581298 -0.043329659435 0.1730404275 -0.044521908563 -0.044108258932 0.17253377975 
-0.04420914986 -0.044884478499 0.17168674588 -0.042112641079 -0.046337397151 0.17877419537 -0.041886324209 -0.04715363601 0.17831862683 
-0.041009703097 -0.048387421157 0.18174845521 -0.041840504526 -0.04646411259 0.18000476871 -0.042435134911 -0.046498199885 0.17647931551 
-0.043468249223 -0.045490061869 0.17347899163 -0.043299313803 -0.043954502296 0.17742408385 -0.041994705999 -0.045819423689 0.18018050368 
-0.040538834257 -0.047008951009 0.18552729374 -0.040695291097 -0.046055173985 0.18531575194 -0.041240049891 -0.045166812458 0.18374915851 
-0.041614880399 -0.044977923529 0.18251532515 -0.041564121913 -0.045717189384 0.18214097801 -0.039432572588 -0.052263143458 0.18972421777 
-0.039456120524 -0.053086213096 0.18938466593 -0.039208292656 -0.05408673679 0.19209600044 -0.039072307758 -0.0542723676 0.19341787085 
-0.038985123321 -0.053604359746 0.19343248794 -0.039440052339 -0.051379512827 0.18971727987 -0.039741196904 -0.051424936919 0.18758034351 
-0.040360442341 -0.050077376286 0.18380703035 -0.03845696129 -0.052688108355 0.19553753667 -0.038827404222 -0.051748100553 0.19311582576 
-0.038885883974 -0.052761117804 0.19340829036 -0.038627913383 -0.05351642741 0.19547323796 -0.038804542012 -0.054370359721 0.19543440506 