# vtk DataFile Version 5.1
vtk output
ASCII
DATASET POLYDATA
POINTS 1670 float
0.0424445 0.0802994 0.00635241 0.0420601 0.0802981 0.00714794 0.0424444 0.0791763 0.007155 
0.041682 0.08067 0.00714264 0.0416883 0.0810431 0.00634181 0.0413102 0.0802918 0.00713911 
0.041707 0.0787932 0.00634712 0.040929 0.0810387 0.00713293 0.040954 0.0791619 0.00633741 
0.040554 0.0810356 0.00712852 0.040579 0.0791588 0.006333 0.0405758 0.0784107 0.00713471 
0.0401978 0.0799057 0.00632682 0.0401978 0.0787825 0.00712941 0.0398198 0.0802775 0.00632152 
0.0398197 0.0791544 0.00712411 0.0394479 0.0798994 0.00631799 0.0394478 0.0787763 0.00712058 
0.0390792 0.0791463 0.00631535 0.0431787 0.0799343 0.007962 0.0431943 0.0791825 0.00716382 
0.0428131 0.0788062 0.00796024 0.0431943 0.0780594 0.00796642 0.0424287 0.0799281 0.00795317 
0.0424538 0.0780513 0.00715765 0.0420538 0.0810481 0.00714617 0.04206 0.0791749 0.00795053 
0.0420819 0.0776732 0.00715412 0.0416726 0.0806718 0.00794258 0.0416913 0.0784219 0.00794788 
0.0420756 0.0773 0.00795495 0.0413039 0.0799187 0.00793994 0.0413195 0.0780437 0.00794436 
0.0409164 0.0814155 0.00793199 0.0409414 0.0784156 0.00793906 0.0405509 0.0814105 0.00712764 
0.0405602 0.0791624 0.00793288 0.0401759 0.0814074 0.00712322 0.0401852 0.0791593 0.00792847 
0.039801 0.0814043 0.00711881 0.0398103 0.0791562 0.00792406 0.0398227 0.0776562 0.00792759 
0.0394353 0.079153 0.00791964 0.039051 0.0802749 0.00791258 0.039076 0.0783981 0.00711706 
0.038676 0.0802717 0.00790817 0.0435536 0.0799374 0.00796641 0.0435504 0.0791893 0.00876812 
0.0431817 0.0784362 0.00876548 0.0427974 0.079558 0.00875841 0.042813 0.0776831 0.00876283 
0.0424193 0.0799299 0.00875312 0.0428255 0.0773063 0.00796377 0.0424443 0.07693 0.00876019 
0.0420537 0.0788018 0.00875136 0.0420319 0.0814267 0.00874517 0.0416756 0.0791736 0.00874606 
0.0416944 0.0769237 0.00875136 0.0413007 0.0791705 0.00874165 0.0413194 0.0769206 0.00874695 
0.0409257 0.0791674 0.00873724 0.0409444 0.0769175 0.00874254 0.0405507 0.0791642 0.00873282 
0.0405789 0.0769125 0.00793818 0.0401727 0.0795361 0.00872753 0.0401914 0.0772862 0.00873283 
0.0397946 0.079908 0.00872223 0.0398259 0.0772812 0.00792847 0.0394259 0.0791548 0.00871959 
0.0394415 0.0772799 0.008724 0.0390509 0.0791517 0.00871517 0.0390665 0.0772768 0.00871959 
0.0386791 0.0787736 0.00871165 0.0383073 0.0795186 0.00790552 0.0383041 0.0787705 0.00870723 
0.0435441 0.0788161 0.00956895 0.0435535 0.0776911 0.0095716 0.0427911 0.0791848 0.00955924 
0.0428067 0.0773099 0.00956366 0.0424099 0.0799317 0.00955306 0.0424317 0.0773068 0.00955925 
0.0420287 0.0806785 0.00954688 0.0420474 0.0784286 0.00955218 0.0420224 0.0814285 0.00954511 
0.0416662 0.0791754 0.009546 0.0416975 0.0765487 0.00875225 0.0412725 0.0814222 0.00953629 
0.0412975 0.0784223 0.00954336 0.0413256 0.0761706 0.00874872 0.0409132 0.0795442 0.00953629 
0.040935 0.0769193 0.00954248 0.0405288 0.080666 0.00952923 0.0405507 0.0780411 0.00953542 
0.0401476 0.0814128 0.00952305 0.0401726 0.0784129 0.00953012 0.0397758 0.0810347 0.00951952 
0.0397945 0.0787848 0.00952483 0.0398227 0.0765331 0.00873018 0.0394164 0.0791567 0.00951953 
0.0394352 0.0769067 0.00952483 0.0390384 0.0795285 0.00951423 0.0390696 0.0769018 0.00872048 
0.0386696 0.0787754 0.00951159 0.0386852 0.0769005 0.00951601 0.0382978 0.0783973 0.00950806 
0.037926 0.0791423 0.00870194 0.0379228 0.0783942 0.00950365 0.0431597 0.0788148 0.0103645 
0.0431691 0.0776898 0.0103671 0.0427879 0.0784367 0.0103609 0.0427692 0.0806866 0.0103556 
0.0424098 0.0788085 0.0103557 0.0424285 0.0765586 0.010361 0.0420317 0.0791804 0.0103504 
0.0420536 0.0765555 0.0103565 0.0416505 0.0799272 0.0103442 0.0416724 0.0773023 0.0103504 
0.0416849 0.0758024 0.0103539 0.0412787 0.0795491 0.0103406 0.0413005 0.0769242 0.0103468 
0.0408944 0.0806709 0.0103336 0.0409162 0.078046 0.0103398 0.0409349 0.0757961 0.0103451 
0.0405319 0.0791679 0.0103327 0.0405537 0.076543 0.0103389 0.0401445 0.0806647 0.0103248 
0.0401663 0.0780398 0.0103309 0.0401944 0.075788 0.00953631 0.039782 0.0791616 0.0103239 
0.0398038 0.0765367 0.0103301 0.0394039 0.0795334 0.0103186 0.0394257 0.0769085 0.0103248 
0.0390258 0.0799053 0.0103133 0.0390476 0.0772804 0.0103195 0.0386446 0.0806521 0.0103071 
0.0386696 0.0776523 0.0103142 0.038279 0.0795241 0.0103054 0.0383103 0.0768973 0.00951159 
0.0379072 0.0791459 0.0103018 0.0379353 0.0768942 0.00950718 0.0375384 0.0783928 0.0102992 
0.0427722 0.0791884 0.0111591 0.0427816 0.0780635 0.0111618 0.0431785 0.0765649 0.0103698 
0.0423941 0.0795603 0.0111538 0.042416 0.0769354 0.01116 0.0420098 0.0806821 0.0111468 
0.0420348 0.0776822 0.0111538 0.0420504 0.0758073 0.0111583 0.0416536 0.0784291 0.0111477 
0.0416754 0.0758042 0.0111538 0.0412724 0.0791759 0.0111415 0.0412942 0.076551 0.0111477 
0.0408849 0.0806727 0.0111335 0.0409037 0.0784228 0.0111388 0.0409255 0.0757979 0.011145 
0.0405193 0.0795446 0.0111318 0.0405412 0.0769197 0.011138 0.0401319 0.0810415 0.0111238 
0.0401569 0.0780416 0.0111309 0.0401881 0.0754149 0.0103371 0.0397725 0.0791634 0.0111238 
0.0397944 0.0765385 0.01113 0.039382 0.0810352 0.011115 0.0394069 0.0780353 0.0111221 
0.0394257 0.0757854 0.0111274 0.0390289 0.0784072 0.0111168 0.0390601 0.0757805 0.010323 
0.0386508 0.078779 0.0111115 0.038682 0.0761523 0.0103177 0.0382727 0.0791509 0.0111062 
0.0382945 0.076526 0.0111124 0.037904 0.0783978 0.0111035 0.0379321 0.0761461 0.0103089 
0.0375321 0.0780197 0.0111 0.0371635 0.0783897 0.0102948 0.0427659 0.0788153 0.0119599 
0.0427753 0.0776903 0.0119626 0.0427566 0.0799402 0.0119573 0.0423972 0.0780622 0.0119573 
0.0423785 0.0803121 0.011952 0.0420222 0.078059 0.0119529 0.042041 0.0758091 0.0119582 
0.041641 0.0788059 0.0119467 0.0416629 0.076181 0.0119529 0.0412567 0.0799277 0.0119396 
0.0412786 0.0773028 0.0119458 0.0413067 0.0750511 0.0111512 0.0408818 0.0799246 0.0119352 
0.0409036 0.0772997 0.0119414 0.0409223 0.0750498 0.0119467 0.0405162 0.0787965 0.0119335 
0.040538 0.0761716 0.0119397 0.0401287 0.0802933 0.0119255 0.0401506 0.0776684 0.0119317 
0.0401818 0.0750417 0.011138 0.0397631 0.0791652 0.0119238 0.039785 0.0765403 0.01193 
0.0393757 0.080662 0.0119158 0.0394006 0.0776621 0.0119229 0.0394193 0.0754122 0.0119282 
0.0390132 0.0791589 0.0119149 0.039035 0.076534 0.0119211 0.038632 0.0799058 0.0119088 
0.0386538 0.0772809 0.011915 0.038257 0.0799027 0.0119044 0.0382757 0.0776527 0.0119097 
0.0383039 0.075401 0.011115 0.0378977 0.0780246 0.0119044 0.0379164 0.0757747 0.0119097 
0.0375289 0.0772715 0.0119017 0.0371446 0.0783933 0.0118946 0.0371571 0.0768934 0.0118982 
0.0431408 0.0776952 0.012767 0.0427534 0.0791921 0.012759 0.0423909 0.077689 0.0127581 
0.0427909 0.0758154 0.011967 0.0420066 0.0788108 0.0127511 0.0420284 0.0761859 0.0127573 
0.0416191 0.0803076 0.0127431 0.0416441 0.0773077 0.0127502 0.0420378 0.075061 0.0127599 
0.0412598 0.0784296 0.0127431 0.0412816 0.0758047 0.0127493 0.0408754 0.0795514 0.0127361 
0.0408973 0.0769265 0.0127422 0.0409254 0.0746748 0.0119476 0.0405036 0.0791733 0.0127325 
0.0405254 0.0765484 0.0127387 0.0401193 0.0802951 0.0127255 0.040138 0.0780452 0.0127308 
0.0401598 0.0754203 0.012737 0.0397506 0.079542 0.0127228 0.0397724 0.0769171 0.012729 
0.0397911 0.0746672 0.0127343 0.039385 0.0784139 0.0127211 0.0394068 0.075789 0.0127273 
0.0389975 0.0799107 0.0127131 0.0390194 0.0772858 0.0127193 0.0390381 0.0750359 0.0127246 
0.0386319 0.0787826 0.0127114 0.0386538 0.0761577 0.0127175 0.0382507 0.0795295 0.0127052 
0.0382726 0.0769046 0.0127114 0.0378758 0.0795264 0.0127008 0.0378945 0.0772764 0.0127061 
0.0379226 0.0750247 0.0119114 0.0375164 0.0776483 0.0127008 0.0375445 0.0753966 0.0119061 
0.0371414 0.0776452 0.0126964 0.037157 0.0757702 0.0127008 0.036779 0.0772652 0.0118929 
0.036779 0.0761421 0.0126955 0.0427564 0.0776939 0.0135625 0.0423908 0.0765658 0.0135607 
0.041994 0.0791876 0.0135501 0.0420127 0.0769377 0.0135554 0.0416159 0.0795595 0.0135448 
0.0416347 0.0773095 0.0135501 0.0416534 0.0750596 0.0135554 0.0412566 0.0776814 0.0135448 
0.0412784 0.0750565 0.013551 0.040866 0.0795532 0.013536 0.0408879 0.0769283 0.0135422 
0.0404879 0.079925 0.0135307 0.0405067 0.0776751 0.013536 0.0405285 0.0750502 0.0135422 
0.0401099 0.0802969 0.0135254 0.0401286 0.078047 0.0135307 0.0401504 0.0754221 0.0135369 
0.039738 0.0799188 0.0135219 0.0397599 0.0772939 0.0135281 0.0397817 0.074669 0.0135343 
0.0393724 0.0787907 0.0135201 0.0393943 0.0761658 0.0135263 0.0389881 0.0799125 0.0135131 
0.0390068 0.0776626 0.0135184 0.0390287 0.0750377 0.0135245 0.0386194 0.0791594 0.0135104 
0.0386412 0.0765345 0.0135166 0.0382413 0.0795313 0.0135051 0.03826 0.0772814 0.0135104 
0.0382913 0.0746547 0.0127167 0.0378788 0.0780282 0.0135042 0.0379007 0.0754033 0.0135104 
0.0375007 0.0784001 0.0134989 0.0375226 0.0757752 0.0135051 0.0371195 0.0791469 0.0134928 
0.0371445 0.076147 0.0134998 0.0367508 0.0783938 0.0134901 0.0367726 0.0757689 0.0134963 
0.0363978 0.0768889 0.0126893 0.0363977 0.0757658 0.0134919 0.0427501 0.0773207 0.0143633 
0.0423845 0.0761926 0.0143616 0.0419971 0.0776895 0.0143536 0.0423908 0.0754427 0.0143633 
0.0416065 0.0795613 0.0143448 0.0416315 0.0765614 0.0143518 0.0416471 0.0746864 0.0143563 
0.0412503 0.0773082 0.0143457 0.0412721 0.0746833 0.0143518 0.0408535 0.07993 0.0143351 
0.0408784 0.0769301 0.0143421 0.0409003 0.0743052 0.0143483 0.0404972 0.0776769 0.014336 
0.0405191 0.075052 0.0143421 0.0404754 0.0803018 0.0143298 0.0401191 0.0780488 0.0143307 
0.040141 0.0754239 0.0143368 0.0397255 0.0802956 0.0143209 0.0397504 0.0772957 0.014328 
0.0397723 0.0746708 0.0143342 0.0393599 0.0791675 0.0143192 0.0393817 0.0765426 0.0143254 
0.039413 0.0739159 0.0135316 0.0389943 0.0780394 0.0143174 0.0390161 0.0754145 0.0143236 
0.0386037 0.0799112 0.0143086 0.0386287 0.0769113 0.0143157 0.0386599 0.0742846 0.0135219 
[...]
POINT_DATA 1670
SCALARS flow double 3
LOOKUP_TABLE default
-0.036786037453 -0.019459727346 0.32629392126 -0.084140762824 -0.0050753946548 0.25685033931 -0.058915604231 -0.039151299256 0.25380737686 
-0.081274958371 -0.031947920579 0.28136158556 -0.066543272691 -0.048221313256 0.28596628003 -0.082887134011 -0.019062311857 0.28473172498 
-0.015441885606 -0.053085658977 0.27925500904 -0.075756106791 -0.011067011457 0.29554046477 -0.041152602427 -0.054542423768 0.2491681366 
-0.080055763367 -0.021066527077 0.29453532454 -0.044522447642 -0.058928370992 0.26476443619 -0.050632230919 -0.056413941251 0.23441057856 
-0.061254563969 -0.062512412581 0.29485052704 -0.038880958798 -0.072117088137 0.24288614924 -0.046896508225 -0.046306353458 0.28326328475 
-0.053371545113 -0.076539479186 0.28227918988 -0.061833057009 -0.059944902799 0.26749192275 -0.035248735928 -0.069594433184 0.30591577924 
-0.015338979984 -0.05164287054 0.26948627731 -0.016961701581 0.012898874015 0.31180540839 -0.060101051193 -0.050624188421 0.2381931786 
-0.019428093709 -0.030327594889 0.253275766 -0.053971388814 -0.018219346367 0.16738614346 -0.029305966191 0.010112976989 0.29213281018 
-0.026694356708 -0.031043320176 0.22389263893 -0.052647452558 -0.0082350084311 0.29678252257 -0.054425169364 -0.02860340327 0.23821033697 
-0.050224409251 -0.057779165329 0.15091645242 -0.045104116974 -0.026993999648 0.26663859825 -0.025067054855 -0.035391004697 0.23808265009 
-0.043147304924 -0.012919765239 0.14015577372 -0.040970507945 -0.039835542507 0.27306479246 -0.030190889137 -0.05196018917 0.18727503178 
-0.10506161842 -0.060974544816 0.23182624457 -0.038112862646 -0.044301949673 0.23257764315 -0.076526684416 -0.017178858877 0.31556565337 
-0.061464960715 -0.042056345187 0.27331627978 -0.069075917947 -0.040014924594 0.29617262889 -0.049372530472 -0.042147133779 0.31643111801 
-0.06683417087 -0.055361141863 0.24105373432 -0.04501841308 -0.055264889633 0.32920796279 -0.020061898887 -0.03008946044 0.23227024202 
-0.052429270884 -0.077948221228 0.30280297512 -0.091906773045 -0.099000283115 0.2115576915 -0.037730548942 -0.097140625207 0.18777624995 
-0.074445539894 -0.087775450961 0.18878748846 -0.021204682733 -0.0080507837928 0.26394729362 -0.035544209639 -0.045787932246 0.21454396883 
-0.042600956036 -0.061343568752 0.22767987998 -0.038363997582 -0.0044745996049 0.35016918979 -0.051927510583 -0.049848500461 0.16552852557 
-0.05929993633 -0.026793025738 0.27770166308 -0.063592209647 -0.053524885912 0.13854142543 -0.020820705471 -0.027253465897 0.19514222033 
-0.037874096858 -0.030190971981 0.25208097343 -0.035879472269 0.017278994162 0.2480910006 -0.03053576576 -0.03744493919 0.25609115321 
-0.02273409305 -0.047888373675 0.14828891461 -0.035765516414 -0.041299620222 0.25506114203 -0.025402097156 -0.048255340092 0.12628370244 
-0.042499428597 -0.04042051868 0.27890750334 -0.023918122805 -0.038828526431 0.14288210705 -0.046723505433 -0.045695974432 0.29303066073 
-0.027056267335 -0.051741231525 0.1448284163 -0.062028840807 -0.069559606759 0.29095102581 -0.015941361568 -0.027543618606 0.17908622519 
-0.090385585225 -0.078875160422 0.29210295286 -0.023990878851 -0.023195459805 0.18777116852 -0.032566973699 -0.088125254895 0.26545933703 
-0.017655222499 -0.05903897546 0.12298112623 -0.041795234446 -0.10227089983 0.26294135838 -0.015169390391 -0.065773999542 0.11570110627 
-0.067325627883 -0.10399625596 0.24262290525 -0.044914295479 -0.094654722849 0.14910919503 -0.068369041271 -0.10286054276 0.2308881953 
-0.0057598117118 -0.036160544185 0.21633836023 -0.026726609675 -0.046480919766 0.13798393108 -0.062289937317 -0.052662258096 0.25135594556 
-0.032814343255 -0.059063099019 0.16626263874 -0.067309568458 -0.043102597966 0.22295315363 -0.047799262022 -0.072399835236 0.15439631779 
-0.069860170577 -0.029276841496 0.25560922788 -0.028421088246 -0.043056010296 0.2297588446 -0.053018060031 -0.034781081121 0.22261474934 
-0.062433079231 -0.03063941003 0.27279106425 -0.033725813502 -0.06824851315 0.12574272381 -0.085612322123 -0.049135686706 0.21396142881 
-0.023625703463 -0.029816995551 0.23613391653 -0.022361816526 -0.0429287729 0.13802735133 -0.072127401827 -0.047445390924 0.26197100049 
-0.012500527649 -0.029606039987 0.16204021379 -0.10191364743 -0.075499413035 0.27340313723 -0.032797569883 -0.039001168691 0.22530377892 
-0.062902798767 -0.04529115161 0.27330663978 -0.044522288499 -0.045824903702 0.23055239524 -0.089581802382 -0.062240068444 0.2617986995 
-0.03168417258 -0.050621288162 0.26343188666 -0.01627580292 -0.062578850171 0.10786728762 -0.054888612662 -0.057822252351 0.27342939823 
-0.016295511787 -0.056081716822 0.12982696908 -0.077958006894 -0.078503723258 0.28150583269 -0.021932807432 -0.072377242693 0.072664113208 
-0.058250548072 -0.081104886303 0.22705203509 -0.012823949068 -0.048731754549 0.12838617063 -0.050438639403 -0.10453681717 0.20229323671 
-0.071674232548 -0.1122316658 0.12002242556 -0.052013964127 -0.11195706597 0.16713190332 -0.01586654786 -0.035864441619 0.25333024813 
-0.042529588715 -0.042988954844 0.18369110058 -0.034077719325 -0.052210840589 0.21897007119 -0.044983987224 -0.059366782619 0.20469668113 
-0.036404026261 -0.041879363082 0.25993826892 -0.029047601385 -0.029189324004 0.14866030228 -0.051096389387 -0.053107548743 0.27151032776 
-0.038936576786 -0.035720837044 0.14709339038 -0.064915945939 -0.049117828297 0.27280353767 -0.059755209274 -0.043846409838 0.12928711886 
-0.02915495955 -0.042506587001 0.092532468435 -0.078680520865 -0.050344730851 0.2980359072 -0.047707269297 -0.058611860338 0.16169078228 
-0.084346698307 -0.056280386956 0.28577465202 -0.051802009288 -0.029748840029 0.24019698703 -0.01946836119 -0.048923017771 0.070686948215 
-0.067353009962 -0.066902723476 0.31822826137 -0.026432252613 -0.035598040702 0.15505305941 -0.11430509388 -0.094012115141 0.29380837378 
-0.040898603371 -0.036046938143 0.26426643369 -0.0040792525308 -0.017178256485 0.060053647424 -0.06922038781 -0.046129601625 0.31278794206 
-0.0071512210502 0.004059735641 0.131752036 -0.084240059667 -0.075312747439 0.29021422098 -0.014254836712 -0.02312799358 0.18202634054 
-0.098194148878 -0.096568496458 0.27105339822 -0.020487910826 -0.048610451201 0.20691422788 -0.12050873887 -0.10019623229 0.17801789423 
-0.03099491748 -0.055433226866 0.20827091604 -0.077461614632 -0.10293414368 0.23175826169 -0.014732733283 -0.054040824072 0.12007407011 
-0.058533687453 -0.096084911139 0.21194444098 -0.016772990204 -0.062893273316 0.10053760793 -0.040734874222 -0.078489901727 0.1559584321 
-0.038045845455 -0.039927361864 0.22377891659 -0.025766774825 -0.06175683422 0.24155219925 -0.028000975807 -0.056240426049 0.10380850079 
-0.052578567438 -0.057913446919 0.22657847011 -0.036882360916 -0.045824420532 0.20378549769 -0.10035842618 -0.057370084342 0.25287105114 
-0.031478884432 -0.033169704085 0.2087029596 -0.046833102982 -0.058720794607 0.11238177642 -0.019106994034 -0.03372324405 0.30309582151 
-0.041953729278 -0.045205333786 0.11143168536 -0.044262002004 -0.054356631855 0.33898052865 -0.034376177295 -0.049463067381 0.14278286849 
-0.072633285009 -0.053607967036 0.25953776273 -0.042427213675 -0.053245332283 0.30677132675 -0.053578605602 -0.041928212497 0.051224753478 
-0.066597074714 -0.06868543991 0.30505623708 -0.018998240617 -0.028128686929 0.19028333222 -0.09467634844 -0.087179942877 0.26423713427 
-0.047338039869 -0.057453555197 0.27888894739 -0.02022773481 -0.024617932867 0.068181519352 -0.065520908974 -0.084802830984 0.29973393334 
-0.020204637119 -0.040533617193 0.15220839276 -0.095025853376 -0.083135316959 0.24127324687 -0.059159669371 -0.066423326581 0.24409938288 
-0.0050865655961 -0.00037178561016 0.10883573165 -0.074755088707 -0.097543619633 0.27181987119 0.0066946868059 -0.023802566777 0.070450227947 
-0.08862773492 -0.10787617704 0.28779387947 0.005487195403 -0.036090120842 0.082183291488 -0.086740663937 -0.10063185538 0.24678179075 
-0.017658078827 -0.037979048139 0.10828346689 -0.052439481322 -0.089821590489 0.23739494619 -0.028493853783 -0.066032535797 0.053039850222 
-0.047248806517 -0.097834867125 0.17545775569 -0.023826438607 -0.067802768329 0.15564554263 -0.047800883824 -0.082578121349 0.18664860301 
-0.043671743372 -0.090738955768 0.19013394614 -0.04394795616 -0.052018640688 0.21104075088 -0.055111557543 -0.081413122537 0.20951045589 
-0.07332457345 -0.046456171974 0.18870737403 -0.054284110556 -0.063495418861 0.22608192977 -0.057481677275 -0.056800252953 0.094672469573 
-0.058729799928 -0.072530912529 0.26169751571 -0.058337294645 -0.052015022424 0.13908798272 -0.099682839028 -0.081951618359 0.26270122067 
-0.041080976823 -0.045196449612 0.23645095933 -0.044051882983 -0.040884599435 0.087470081 -0.097638436636 -0.093632910988 0.27154133571 
-0.034294257492 -0.050355821367 0.26095834654 -0.041461669737 -0.02909546538 0.10798285342 -0.067613097852 -0.07843577964 0.27381403485 
-0.057602282669 -0.059584897331 0.15669399832 -0.074022400066 -0.059952290836 0.30739016197 -0.057291889857 -0.076900885169 0.26709572422 
-0.030294561297 -0.027722678447 0.029492908849 -0.090995944563 -0.099408282663 0.28384054892 -0.03206146192 -0.050139692158 0.22045426987 
-0.082496127015 -0.055698585494 0.27749356115 -0.073572929687 -0.089112175543 0.24007447699 -0.0093827170694 -0.035643295815 0.075658972178 
-0.094470618087 -0.10500291406 0.28430028103 -0.034951557265 -0.056957570107 0.19699691075 -0.076343061339 -0.086183646597 0.24931288274 
-0.059469915908 -0.086429019588 0.20995845085 -0.061647985116 -0.087006649276 0.22116589871 -0.082478242713 -0.11098295081 0.19069836455 
-0.037899563599 -0.062302332302 0.052920569521 -0.074882833023 -0.10910164381 0.21617646037 -0.017439064222 -0.051183108266 0.099038306965 
-0.069082190478 -0.10687816601 0.14494568351 -0.047244007893 -0.090815961186 0.17007058277 -0.043105937482 -0.093830897992 0.11934150316 
-0.051733848337 -0.09522171839 0.18125941568 -0.047676439152 -0.049199477665 0.17729601134 -0.04487707042 -0.083956416038 0.21305506837 
-0.046269017405 -0.074038339159 0.075310952476 -0.054847546594 -0.063446032031 0.24902683856 -0.059239202513 -0.083080549206 0.13817143782 
-0.078121851395 -0.064316101151 0.210665754 -0.067028576547 -0.078255377714 0.22401193002 -0.056521371395 -0.0776339811 0.077639814414 
-0.074562706084 -0.080616011613 0.24346186624 -0.043628514938 -0.052430968426 0.15928371417 -0.079470087791 -0.064525903195 0.25069220851 
-0.056102768075 -0.062386993802 0.20554952207 -0.055867485924 -0.049211912252 0.076606655295 -0.079231078183 -0.069778011195 0.25900850555 
-0.060497251077 -0.049261622091 0.19618941565 -0.076793012876 -0.063868145367 0.2717197909 -0.081997031945 -0.079778429337 0.25216197449 
-0.036449559635 -0.033622740159 0.15834877882 -0.10205305094 -0.10015900562 0.25294772386 -0.060958109953 -0.065669889797 0.19719810962 
-0.028036553473 -0.016747348687 0.078814683736 -0.094762865692 -0.089210810944 0.27303033735 -0.031269184737 -0.043856741299 0.14866724743 
-0.093932272468 -0.069597367752 0.26322914084 -0.065866801574 -0.096378040025 0.23773953419 -0.014483005582 -0.039171661259 0.088303041377 
-0.11207305474 -0.11508931071 0.29339426834 -0.026912725398 -0.063468318895 0.14094931919 -0.089009380721 -0.093061270406 0.23501810524 
-0.057512672337 -0.10142800541 0.17876314636 -0.079443006593 -0.10366674888 0.17655660107 -0.07728625223 -0.11917164202 0.17857017227 
-0.0050532259896 -0.040274088555 0.084510191413 -0.088521097291 -0.12895559633 0.1691821883 -0.0059680647541 -0.03319611222 0.10743437554 
-0.076583949356 -0.1145096959 0.16538397294 -0.032291013953 -0.070862964918 0.13015986556 -0.049688772106 -0.1000590645 0.11048834962 
-0.038200814777 -0.07236459071 0.13546498063 -0.029601256233 -0.08968733069 0.21373608615 -0.052572248588 -0.085584574584 0.17097303333 
-0.061274205466 -0.061514409608 0.22111272582 -0.069344667925 -0.10916704066 0.16887547235 -0.060579503209 -0.058020516674 0.20939317494 
-0.073776286674 -0.10884542772 0.19665652042 -0.075200804046 -0.079148884923 0.12234831693 -0.073581387754 -0.089461647697 0.21614743914 
-0.069016758444 -0.070562914342 0.13851597492 -0.07179932223 -0.055113035879 0.23952955655 -0.03599815154 -0.060969069007 0.23898866845 
-0.084676500134 -0.062886311195 0.21888685924 -0.06375752306 -0.062677158872 0.23378199741 -0.050968700562 -0.052547483738 0.13575778677 
-0.095465906642 -0.068894658214 0.19386847389 -0.066688405998 -0.069428630556 0.23864606117 -0.039132528232 -0.043931589413 0.1446684465 
-0.08472197538 -0.073992229002 0.23063025641 -0.062046108798 -0.061249810103 0.21182436311 -0.060295184939 -0.042456271026 0.099490463035 
-0.10377473174 -0.081695068618 0.26167536419 -0.056686262905 -0.068885806651 0.18504784076 -0.10433529474 -0.084746926344 0.21186804754 
-0.082648345749 -0.098841286851 0.24633694671 -0.02827686466 -0.044487979506 0.11891678875 -0.1041025795 -0.10719653318 0.25782280644 
-0.042464684377 -0.099803119252 0.19358689 -0.10347362551 -0.10959765078 0.23097870213 -0.070865665381 -0.11279552058 0.25090264455 
-0.014202871082 -0.03279056365 0.059969593581 -0.10122552477 -0.13886761907 0.23497758695 -0.033469058865 -0.070812955653 0.15553869395 
-0.098538529484 -0.13247938403 0.20130041365 -0.033933525135 -0.095761463991 0.13801029845 -0.074750733612 -0.081457831579 0.13554279094 
-0.052137392381 -0.10263228218 0.14611187099 -0.070205172421 -0.095489845864 0.13269884537 -0.025587955453 -0.099113143237 0.17815811522 
-0.044937527899 -0.082190305256 0.092436087436 -0.01819848511 -0.091108877498 0.19190010706 -0.042680114848 -0.077357322487 0.14616624673 
-0.07224208892 -0.090244683264 0.1277796335 -0.072819317576 -0.094755326918 0.20493657853 -0.052754456336 -0.087831444962 0.088450219625 
-0.078869454189 -0.10424452999 0.1780297642 -0.077969198432 -0.10336373514 0.17559720549 -0.090296185767 -0.084040808232 0.088975862113 
-0.083436136343 -0.098047190106 0.21312047174 -0.094415132825 -0.084013048445 0.11529634707 -0.11136913653 -0.089894478916 0.16589446482 
-0.064196668281 -0.091374329738 0.24165520794 -0.082883454526 -0.07884865803 0.15253226896 -0.075313954914 -0.087667618867 0.23760851643 
-0.051553996221 -0.063667115249 0.14358955823 -0.10926517325 -0.089361100435 0.13613092042 -0.073248144707 -0.083265990641 0.23322861105 
-0.040366198604 -0.064111400609 0.16423190365 -0.076009570207 -0.05237720086 0.17208689583 -0.078184846649 -0.094723012458 0.23759061589 
-0.037517210432 -0.044767112894 0.15738528541 -0.0954267018 -0.079841053435 0.27300135032 -0.060874208904 -0.090255212909 0.20750937718 
-0.0093800922152 -0.01733358833 0.13714547785 -0.087959254908 -0.095017060813 0.27165854061 -0.027110447171 -0.06249437137 0.18196373983 
-0.084087638144 -0.077038714784 0.17888389408 -0.070000870784 -0.10488840791 0.24649966789 -0.0084225385388 -0.024712173523 0.11080452952 
-0.10652744959 -0.13475319838 0.2593215663 -0.047102991417 -0.1167579769 0.22628686814 -0.011257003478 -0.020952530449 0.10001985616 
-0.088905348584 -0.13870953383 0.25856111605 -0.018715514414 -0.075917430617 0.17525651106 -0.089927755573 -0.12973934596 0.21458065657 
-0.026159764144 -0.10701840852 0.18256354238 -0.05919207942 -0.080457077396 0.1323056449 -0.041938446749 -0.10920480042 0.18042938204 
-0.047162578172 -0.073691347017 0.22570085981 -0.077642925011 -0.12945771432 0.16638132087 -0.019115074967 -0.074144497218 0.18306036815 
-0.073328726197 -0.13361820498 0.12639969411 -0.033002247896 -0.097226591629 0.13460633902 -0.054894651281 -0.074318196149 0.11134491998 
-0.072270055685 -0.0820496128 0.12434254937 -0.058202602827 -0.066840691334 0.1879555614 -0.074543904646 -0.09319714766 0.12629407472 
-0.066869695603 -0.082146680402 0.18837601553 -0.057512467787 -0.099380797258 0.17729342659 -0.075470723258 -0.07985744435 0.19559401093 
-0.059895560061 -0.1084595596 0.18705254605 -0.068338501281 -0.073383475784 0.18247850326 -0.063743431378 -0.078181919281 0.24358388415 
-0.094342917903 -0.096837862047 0.14316017049 -0.086732209001 -0.087822777982 0.21208246434 -0.066931838189 -0.087107148788 0.19717612285 
-0.078492325096 -0.089516452444 0.21023027331 -0.082123443972 -0.091512473789 0.24632657991 -0.040965982131 -0.057620169031 0.18569572253 
-0.081659406335 -0.090665248412 0.23119304212 -0.081971223383 -0.093237986976 0.25951721669 -0.032283786707 -0.047581867886 0.18772850908 
-0.088678650363 -0.078967936868 0.24671001832 -0.058761286863 -0.11154315316 0.24225285694 -0.059501053358 -0.050914941688 0.11270287481 
-0.10007945335 -0.11299681398 0.26862610589 -0.030747487208 -0.083793582205 0.23226560118 -0.061658505893 -0.053953662266 0.07410753789 
-0.09654530543 -0.11384864455 0.26769358692 -0.024807432579 -0.075570556244 0.21962112386 -0.097761285899 -0.083665112436 0.15041465154 
-0.07172448151 -0.12485766153 0.23285147854 -0.028575840083 -0.063793617727 0.13311789666 -0.10686947422 -0.13714400965 0.24027856553 
-0.031721264621 -0.090334685058 0.19515622551 -0.05126844839 -0.082792351546 0.10798855387 -0.095720652212 -0.15150407294 0.19942344893 
-0.024619083347 -0.08093001097 0.18252277604 -0.095308957554 -0.13953199052 0.18084592233 -0.039191976925 -0.10306189522 0.16677488361 
-0.037285444476 -0.076751591682 0.13548567789 -0.062495693884 -0.11351996936 0.1626175699 -0.036174525902 -0.085329154263 0.22146233934 
-0.067229720021 -0.12033568038 0.14646301084 -0.043569387616 -0.10649486895 0.21751571343 -0.08234602475 -0.11235412584 0.10573590535 
-0.042758818683 -0.11483982018 0.15455158172 -0.088781549106 -0.11077132942 0.17841571558 -0.038616617995 -0.079012208534 0.17551698049 
-0.074031378991 -0.094757389245 0.20834054252 -0.041208561219 -0.11683305845 0.17361872476 -0.064899689078 -0.09591984525 0.18012875528 
-0.059244436533 -0.12595888199 0.2188400285 -0.062325202243 -0.098810880928 0.18749015055 -0.069752069583 -0.10786130731 0.22746494532 
-0.070031012607 -0.093651025272 0.16639015961 -0.062287571493 -0.084017748049 0.24849658337 -0.053021096826 -0.085498557547 0.20905628834 
-0.076154602759 -0.11225180321 0.127295194 -0.083191968995 -0.10944215355 0.2253569672 -0.058103665513 -0.095289854208 0.17483603903 
-0.072783791165 -0.11283800289 0.23964833457 -0.083951913407 -0.12649612393 0.20243588197 -0.086954259669 -0.090822230337 0.18327555158 
-0.081242549473 -0.12350429076 0.21906424696 -0.076280740648 -0.090875830999 0.12285010925 -0.085726792664 -0.087839704799 0.20135058669 
-0.081314237586 -0.12524568554 0.22639187274 -0.068740677499 -0.080268046209 0.12193895035 -0.096274819895 -0.11044880465 0.2173924909 
-0.06387878738 -0.11922152866 0.23439631583 -0.053964982312 -0.06384950731 0.074708896192 -0.097086390196 -0.12269537646 0.24524459199 
-0.040849084467 -0.10619641108 0.21022256325 -0.054567135115 -0.064670166926 0.10156128623 -0.094928851598 -0.13346248127 0.26873303568 
-0.031108823327 -0.10180051479 0.17614596986 -0.10067412121 -0.12434918691 0.1778181845 -0.062464659367 -0.13452691975 0.1997770576 
-0.028596614727 -0.072330448277 0.11604569539 -0.089901668072 -0.14875626967 0.22585471726 -0.045394995933 -0.1280233898 0.16382794307 
-0.076439327852 -0.12360459556 0.15954579693 -0.040486887153 -0.11796469852 0.18779079827 -0.011668557345 -0.07644683122 0.17436369707 
-0.070594970096 -0.1522170894 0.18116585203 -0.018731193178 -0.10785398714 0.17435139504 -0.059940511253 -0.15068726017 0.17103323587 
-0.027182340824 -0.11115109197 0.17279512237 -0.045692892804 -0.15089816008 0.15557550923 -0.028990581054 -0.1161289384 0.1805976245 
-0.060132514191 -0.13865807596 0.17881635896 -0.060161698363 -0.089572881695 0.12157203924 -0.07089832691 -0.12197360595 0.21039308557 
-0.086206454089 -0.085408219351 0.11588428627 -0.089883284957 -0.12887029804 0.21018490663 -0.098078793614 -0.085534948272 0.10402479831 